LAMMPS data file via write_data, version 31 Aug 2018, timestep = 0

44 atoms
8 atom types
46 bonds
9 bond types
72 angles
13 angle types
105 dihedrals
14 dihedral types
26 impropers
6 improper types

-1.5000000000000000e+01 1.5000000000000000e+01 xlo xhi
-1.5000000000000000e+01 1.5000000000000000e+01 ylo yhi
-1.5000000000000000e+01 1.5000000000000000e+01 zlo zhi

Masses

1 12.0112
2 12.0112
3 15.9994
4 12.0112
5 14.0067
6 1.00797
7 12.0112
8 14.0067

Pair Coeffs # lj/class2

1 0.064 4.01
2 0.054 4.01
3 0.24 3.535
4 0.064 4.01
5 0.065 3.57
6 0.02 2.995
7 0.064 4.01
8 0.065 3.57

Bond Coeffs # class2

1 1.417 470.836 -627.618 1327.63
2 1.0982 372.825 -803.453 894.317
3 1.501 321.902 -521.821 572.163
4 1.3768 428.88 -738.235 1114.97
5 1.101 345 -691.89 844.6
6 1.313 367.816 0 0
7 1.158 880 0 0
8 1.37 384 0 0
9 1.35 440 0 0

Angle Coeffs # class2

1 118.9 61.0226 -34.9931 0
2 117.94 35.1558 -12.4682 0
3 120.05 44.7148 -22.7352 0
4 123.42 73.6781 -21.6787 0
5 111 44.3234 -9.4454 0
6 111 44.3234 -9.4454 0
7 107.66 39.641 -12.921 -2.4318
8 104.5 35.7454 -10.0067 -6.2729
9 180 200 0 0
10 120 75 0 0
11 109.5 60 0 0
12 120 102 0 0
13 120 102 0 0

BondBond Coeffs

1 68.2856 1.417 1.417
2 1.0795 1.417 1.0982
3 12.0676 1.417 1.501
4 48.4754 1.417 1.3768
5 0 1.501 1.501
6 2.9168 1.501 1.101
7 5.3316 1.101 1.101
8 0 1.3768 0
9 0 0 1.158
10 0 0 1.158
11 0 0 1.158
12 0 0 1.158
13 0 0 1.158

BondAngle Coeffs

1 28.8708 28.8708 1.417 1.417
2 20.0033 24.2183 1.417 1.0982
3 31.0771 47.0579 1.417 1.501
4 58.479 107.681 1.417 1.3768
5 0 0 1.501 1.501
6 26.4608 11.7717 1.501 1.101
7 18.103 18.103 1.101 1.101
8 0 0 1.3768 0
9 0 0 0 1.158
10 0 0 0 1.158
11 0 0 0 1.158
12 0 0 0 1.158
13 0 0 0 1.158

Dihedral Coeffs # class2

1 8.3667 0 1.1932 0 0 0
2 0 0 4.8498 0 0 0
3 0 0 3.9661 0 0 0
4 0 0 1.7234 0 0 0
5 0 0 1.8769 0 0 0
6 0 0 1.559 0 0 0
7 0 0 4.4072 0 0 0
8 0 0 3 0 0 0
9 -0.2802 0 -0.0678 0 -0.0122 0
10 -0.2801 0 -0.0678 0 -0.0122 0
11 0 0 1.8 0 0 0
12 0 0 0 0 0 0
13 0 0 2 0 0 0
14 0 0 2 0 0 0

AngleAngleTorsion Coeffs

1 0 118.9 118.9
2 -21.0247 118.9 123.42
3 -4.8141 118.9 117.94
4 4.2296 123.42 117.94
5 0.3598 117.94 117.94
6 4.4444 120.05 117.94
7 -14.4097 118.9 120.05
8 0 120.05 123.42
9 0 120.05 111
10 -5.8888 120.05 111
11 0 123.42 0
12 0 0 0
13 0 0 0
14 0 0 0

EndBondTorsion Coeffs

1 -0.1185 6.3204 0 -0.1185 6.3204 0 1.417 1.417
2 0 0.2655 0 0 4.8905 0 1.417 1.3768
3 0 -6.8958 0 0 -0.4669 0 1.417 1.0982
4 0 4.2641 0 0 -1.5867 0 1.3768 1.0982
5 0 -0.689 0 0 -0.689 0 1.0982 1.0982
6 0 -1.797 0 0 -0.4879 0 1.501 1.0982
7 0 -0.6918 0 0 0.2421 0 1.417 1.501
8 0 0 0 0 0 0 1.501 1.3768
9 0 0 0 0 0 0 1.417 1.501
10 -0.5835 1.122 0.3978 1.3997 0.7756 0 1.417 1.101
11 0 0 0 0 0 0 1.417 0
12 0 0 0 0 0 0 1.3768 1.158
13 0 0 0 0 0 0 1.3768 1.158
14 0 0 0 0 0 0 1.3768 1.158

MiddleBondTorsion Coeffs

1 27.5989 -2.312 0 1.417
2 0 4.8255 0 1.417
3 0 -1.1521 0 1.417
4 0 5.5432 0 1.417
5 0 4.8228 0 1.417
6 0 3.9421 0 1.417
7 0 9.1792 0 1.417
8 0 0 0 1.417
9 0 0 0 1.501
10 -5.5679 1.4083 0.301 1.501
11 0 0 0 1.3768
12 0 0 0 0
13 0 0 0 0
14 0 0 0 0

BondBond13 Coeffs

1 53 1.417 1.417
2 -2.2436 1.417 1.3768
3 -6.2741 1.417 1.0982
4 2.0517 1.3768 1.0982
5 -1.7077 1.0982 1.0982
6 0.8743 1.501 1.0982
7 2.5085 1.417 1.501
8 0 1.501 1.3768
9 0 1.417 1.501
10 -3.4826 1.417 1.101
11 0 1.417 0
12 0 1.3768 1.158
13 0 1.3768 1.158
14 0 1.3768 1.158

AngleTorsion Coeffs

1 1.9767 1.0239 0 1.9767 1.0239 0 118.9 118.9
2 0 10.0155 0 0 1.7404 0 118.9 123.42
3 0 2.5014 0 0 2.7147 0 118.9 117.94
4 0 2.5706 0 0 1.8729 0 123.42 117.94
5 0 2.4501 0 0 2.4501 0 117.94 117.94
6 0 -0.1242 0 0 3.4601 0 120.05 117.94
7 0 3.8987 0 0 -4.4683 0 118.9 120.05
8 0 0 0 0 0 0 120.05 123.42
9 0 0 0 0 0 0 120.05 111
10 0.2251 0.6548 0.1237 4.6266 0.1632 0.0461 120.05 111
11 0 0 0 0 0 0 123.42 0
12 0 0 0 0 0 0 0 0
13 0 0 0 0 0 0 0 0
14 0 0 0 0 0 0 0 0

Improper Coeffs # class2

1 4.8912 0
2 7.8153 0
3 13.0421 0
4 0 0
5 0 0
6 10 0

AngleAngle Coeffs

1 0 0 0 118.9 117.94 117.94
2 0 0 0 118.9 120.05 120.05
3 0 0 0 118.9 123.42 123.42
4 0 0 0 111 111 111
5 2.3794 3.0118 2.3794 111 107.66 111
6 2.3794 3.0118 2.3794 111 107.66 111

Atoms # full

18 1 6 5.2999999999999999e-02 2.2141849446035597e+00 1.8130700998900122e+00 1.2128654140524455e+00 0 0 0
7 1 2 -1.0600000000000000e-01 1.3060083937205900e+00 2.3415222379884160e+00 1.5356692160854428e+00 0 0 0
11 1 1 0.0000000000000000e+00 4.0853585215185256e-01 1.4351657639266542e+00 2.3261489988467545e+00 0 0 0
12 1 1 -1.2680000000000000e-01 -8.5648136194516222e-01 1.8616693461540372e+00 2.6828759701879874e+00 0 0 0
16 1 1 -1.2680000000000000e-01 8.5011133520151139e-01 2.1519840616744335e-01 2.7989026900617935e+00 0 0 0
38 1 6 1.2680000000000000e-01 -1.2400351502280142e+00 2.8149569585299457e+00 2.2976488602146925e+00 0 0 0
40 1 6 1.2680000000000000e-01 1.8507506070246298e+00 -8.9353482587762378e-02 2.4581616554101617e+00 0 0 0
17 1 6 5.2999999999999999e-02 8.0514493258439590e-01 2.6852474240616768e+00 6.2052287196602840e-01 0 0 0
8 1 3 -9.4000000000000000e-02 4.7274718482624001e-01 5.0924442133338941e+00 1.1521248688064714e+00 0 0 0
9 1 4 1.8790000000000001e-01 3.4106316016541488e-01 6.3855579736461596e+00 9.6936592054058246e-01 0 0 0
10 1 5 -1.2039999999999999e-01 2.2475160085892315e-01 7.5290221282477257e+00 8.0506634629618046e-01 0 0 0
5 1 1 0.0000000000000000e+00 1.6656883491755863e+00 3.4688772868835764e+00 2.4655553207421645e+00 0 0 0
6 1 1 2.6499999999999999e-02 1.2204195579686166e+00 4.7813658064170745e+00 2.2746993793093604e+00 0 0 0
22 1 2 -1.0600000000000000e-01 -1.9297044931145693e+00 -7.0950901127749011e-01 5.2112351495882807e+00 0 0 0
23 1 1 0.0000000000000000e+00 -1.3857152609184127e+00 -2.0227927886065711e-01 6.5217035638779208e+00 0 0 0
24 1 6 5.2999999999999999e-02 -2.9971980724278984e+00 -4.5814678762438876e-01 5.1189763345801689e+00 0 0 0
25 1 6 5.2999999999999999e-02 -1.8670639755741998e+00 -1.8042822391452495e+00 5.1556035895732784e+00 0 0 0
26 1 1 -1.2680000000000000e-01 -5.1118375370001135e-01 -9.7210664062928909e-01 7.2694017737921159e+00 0 0 0
27 1 1 -1.2680000000000000e-01 3.3266271630812701e-02 -4.7702169235744102e-01 8.4409690983266952e+00 0 0 0
39 1 6 1.2680000000000000e-01 -2.6059105883874532e+00 1.4971588044498021e+00 3.8495045721270191e+00 0 0 0
13 1 1 -1.2680000000000000e-01 -1.6156846911100855e+00 1.1215770306285620e+00 3.5586808883451044e+00 0 0 0
14 1 1 0.0000000000000000e+00 -1.1418988119813114e+00 -4.6607029300658999e-02 4.1190646315562214e+00 0 0 0
15 1 1 2.6499999999999999e-02 9.9106104345465476e-02 -5.3358994770830215e-01 3.6957548840469974e+00 0 0 0
19 1 3 -9.4000000000000000e-02 5.6401514845043133e-01 -1.7341693272091458e+00 4.2060355312300741e+00 0 0 0
20 1 4 1.8790000000000001e-01 1.6974892130475092e+00 -2.1309324633826479e+00 3.6771771471964008e+00 0 0 0
37 1 6 1.2680000000000000e-01 2.7870801636880551e+00 2.1491202305663566e+00 3.7337759902181866e+00 0 0 0
41 1 6 1.2680000000000000e-01 -2.4680282295403863e-01 -1.9800861445146223e+00 6.9218833588438562e+00 0 0 0
21 1 5 -1.2039999999999999e-01 2.6994331530326590e+00 -2.4850307566649561e+00 3.2111915918090617e+00 0 0 0
28 1 1 -1.2680000000000000e-01 -2.8004530142781214e-01 8.0022843909088004e-01 8.8711959473574122e+00 0 0 0
29 1 1 2.6499999999999999e-02 -1.1657693181723641e+00 1.5910440104355805e+00 8.1354247330894740e+00 0 0 0
30 1 1 -1.2680000000000000e-01 -1.7140148223146354e+00 1.0667343954160469e+00 6.9672111874245006e+00 0 0 0
31 1 3 -9.4000000000000000e-02 -1.4484169539167293e+00 2.8573834192708376e+00 8.5947719785192831e+00 0 0 0
44 1 6 1.2680000000000000e-01 -2.4196614611675762e+00 1.6318466161125245e+00 6.3414819189090368e+00 0 0 0
33 1 5 -1.2039999999999999e-01 -3.0986969561140629e+00 4.0604075292453663e+00 7.2024330809037460e+00 0 0 0
4 1 1 -1.2680000000000000e-01 2.4306354755179433e+00 3.1781491570320863e+00 3.5808212361981950e+00 0 0 0
1 1 1 -1.2680000000000000e-01 1.5326968862834049e+00 5.7505130012070751e+00 3.2287844627177056e+00 0 0 0
2 1 1 -1.2680000000000000e-01 2.2935812061423819e+00 5.4315852349263292e+00 4.3421319619730765e+00 0 0 0
3 1 1 -1.2680000000000000e-01 2.7595472229743589e+00 4.1379574303605855e+00 4.5193308309223807e+00 0 0 0
32 1 4 1.8790000000000001e-01 -2.3257002867001724e+00 3.4962726681577463e+00 7.8529257093280158e+00 0 0 0
34 1 6 1.2680000000000000e-01 1.1742771342940193e+00 6.7888799765936305e+00 3.1718120100152842e+00 0 0 0
35 1 6 1.2680000000000000e-01 2.5283004253918735e+00 6.2082226691095839e+00 5.0836629553647148e+00 0 0 0
36 1 6 1.2680000000000000e-01 3.3666298064871851e+00 3.8765419676689490e+00 5.3963234537171125e+00 0 0 0
42 1 6 1.2680000000000000e-01 7.2360314043077389e-01 -1.0980611499144335e+00 9.0289890233746704e+00 0 0 0
43 1 6 1.2680000000000000e-01 1.6999277815631506e-01 1.1864824536584901e+00 9.7973671975538910e+00 0 0 0

Velocities

18 0.0000000000000000e+00 0.0000000000000000e+00 0.0000000000000000e+00
7 0.0000000000000000e+00 0.0000000000000000e+00 0.0000000000000000e+00
11 0.0000000000000000e+00 0.0000000000000000e+00 0.0000000000000000e+00
12 0.0000000000000000e+00 0.0000000000000000e+00 0.0000000000000000e+00
16 0.0000000000000000e+00 0.0000000000000000e+00 0.0000000000000000e+00
38 0.0000000000000000e+00 0.0000000000000000e+00 0.0000000000000000e+00
40 0.0000000000000000e+00 0.0000000000000000e+00 0.0000000000000000e+00
17 0.0000000000000000e+00 0.0000000000000000e+00 0.0000000000000000e+00
8 0.0000000000000000e+00 0.0000000000000000e+00 0.0000000000000000e+00
9 0.0000000000000000e+00 0.0000000000000000e+00 0.0000000000000000e+00
10 0.0000000000000000e+00 0.0000000000000000e+00 0.0000000000000000e+00
5 0.0000000000000000e+00 0.0000000000000000e+00 0.0000000000000000e+00
6 0.0000000000000000e+00 0.0000000000000000e+00 0.0000000000000000e+00
22 0.0000000000000000e+00 0.0000000000000000e+00 0.0000000000000000e+00
23 0.0000000000000000e+00 0.0000000000000000e+00 0.0000000000000000e+00
24 0.0000000000000000e+00 0.0000000000000000e+00 0.0000000000000000e+00
25 0.0000000000000000e+00 0.0000000000000000e+00 0.0000000000000000e+00
26 0.0000000000000000e+00 0.0000000000000000e+00 0.0000000000000000e+00
27 0.0000000000000000e+00 0.0000000000000000e+00 0.0000000000000000e+00
39 0.0000000000000000e+00 0.0000000000000000e+00 0.0000000000000000e+00
13 0.0000000000000000e+00 0.0000000000000000e+00 0.0000000000000000e+00
14 0.0000000000000000e+00 0.0000000000000000e+00 0.0000000000000000e+00
15 0.0000000000000000e+00 0.0000000000000000e+00 0.0000000000000000e+00
19 0.0000000000000000e+00 0.0000000000000000e+00 0.0000000000000000e+00
20 0.0000000000000000e+00 0.0000000000000000e+00 0.0000000000000000e+00
37 0.0000000000000000e+00 0.0000000000000000e+00 0.0000000000000000e+00
41 0.0000000000000000e+00 0.0000000000000000e+00 0.0000000000000000e+00
21 0.0000000000000000e+00 0.0000000000000000e+00 0.0000000000000000e+00
28 0.0000000000000000e+00 0.0000000000000000e+00 0.0000000000000000e+00
29 0.0000000000000000e+00 0.0000000000000000e+00 0.0000000000000000e+00
30 0.0000000000000000e+00 0.0000000000000000e+00 0.0000000000000000e+00
31 0.0000000000000000e+00 0.0000000000000000e+00 0.0000000000000000e+00
44 0.0000000000000000e+00 0.0000000000000000e+00 0.0000000000000000e+00
33 0.0000000000000000e+00 0.0000000000000000e+00 0.0000000000000000e+00
4 0.0000000000000000e+00 0.0000000000000000e+00 0.0000000000000000e+00
1 0.0000000000000000e+00 0.0000000000000000e+00 0.0000000000000000e+00
2 0.0000000000000000e+00 0.0000000000000000e+00 0.0000000000000000e+00
3 0.0000000000000000e+00 0.0000000000000000e+00 0.0000000000000000e+00
32 0.0000000000000000e+00 0.0000000000000000e+00 0.0000000000000000e+00
34 0.0000000000000000e+00 0.0000000000000000e+00 0.0000000000000000e+00
35 0.0000000000000000e+00 0.0000000000000000e+00 0.0000000000000000e+00
36 0.0000000000000000e+00 0.0000000000000000e+00 0.0000000000000000e+00
42 0.0000000000000000e+00 0.0000000000000000e+00 0.0000000000000000e+00
43 0.0000000000000000e+00 0.0000000000000000e+00 0.0000000000000000e+00

Bonds

1 5 7 17
2 5 7 18
3 3 11 7
4 1 11 16
5 1 11 12
6 1 12 13
7 2 12 38
8 2 16 40
9 6 8 9
10 7 9 10
11 1 5 6
12 3 5 7
13 4 6 8
14 5 22 24
15 5 22 25
16 3 23 22
17 1 23 26
18 1 23 30
19 1 26 27
20 2 26 41
21 1 27 28
22 2 27 42
23 1 13 14
24 2 13 39
25 1 14 15
26 3 14 22
27 1 15 16
28 4 15 19
29 6 19 20
30 7 20 21
31 1 28 29
32 2 28 43
33 1 29 30
34 4 29 31
35 2 30 44
36 6 31 32
37 1 4 5
38 2 4 37
39 1 1 6
40 1 1 2
41 2 1 34
42 1 2 3
43 2 2 35
44 1 3 4
45 2 3 36
46 7 32 33

Angles

1 5 5 7 11
2 6 5 7 17
3 6 5 7 18
4 6 11 7 17
5 6 11 7 18
6 7 17 7 18
7 1 16 11 12
8 3 16 11 7
9 3 12 11 7
10 1 11 12 13
11 2 11 12 38
12 2 13 12 38
13 1 15 16 11
14 2 15 16 40
15 2 11 16 40
16 8 6 8 9
17 9 8 9 10
18 3 6 5 7
19 1 6 5 4
20 3 4 5 7
21 4 5 6 8
22 1 5 6 1
23 4 1 6 8
24 6 23 22 24
25 6 23 22 25
26 5 23 22 14
27 7 24 22 25
28 6 14 22 24
29 6 14 22 25
30 3 26 23 22
31 1 26 23 30
32 3 30 23 22
33 1 23 26 27
34 2 23 26 41
35 2 27 26 41
36 1 26 27 28
37 2 26 27 42
38 2 28 27 42
39 1 12 13 14
40 2 12 13 39
41 2 14 13 39
42 1 13 14 15
43 3 13 14 22
44 3 15 14 22
45 1 16 15 14
46 4 16 15 19
47 4 14 15 19
48 8 15 19 20
49 9 19 20 21
50 1 27 28 29
51 2 27 28 43
52 2 29 28 43
53 1 28 29 30
54 4 28 29 31
55 4 30 29 31
56 2 23 30 44
57 1 23 30 29
58 2 29 30 44
59 8 29 31 32
60 2 5 4 37
61 1 5 4 3
62 2 3 4 37
63 1 6 1 2
64 2 6 1 34
65 2 2 1 34
66 1 1 2 3
67 2 1 2 35
68 2 3 2 35
69 2 4 3 36
70 1 4 3 2
71 2 2 3 36
72 9 31 32 33

Dihedrals

1 9 16 11 7 5
2 9 12 11 7 5
3 10 16 11 7 17
4 10 12 11 7 17
5 10 16 11 7 18
6 10 12 11 7 18
7 1 12 11 16 15
8 3 12 11 16 40
9 6 7 11 16 40
10 1 16 11 12 13
11 3 16 11 12 38
12 6 7 11 12 38
13 7 13 12 11 7
14 1 11 12 13 14
15 3 11 12 13 39
16 5 38 12 13 39
17 7 15 16 11 7
18 2 11 16 15 19
19 12 6 8 9 10
20 3 6 5 4 37
21 6 7 5 4 37
22 8 7 5 6 8
23 2 4 5 6 8
24 1 4 5 6 1
25 9 6 5 7 11
26 10 6 5 7 17
27 10 6 5 7 18
28 9 4 5 7 11
29 10 4 5 7 17
30 10 4 5 7 18
31 3 5 6 1 34
32 4 8 6 1 34
33 7 1 6 5 7
34 11 5 6 8 9
35 11 1 6 8 9
36 10 26 23 22 24
37 10 30 23 22 24
38 10 26 23 22 25
39 10 30 23 22 25
40 9 26 23 22 14
41 9 30 23 22 14
42 6 22 23 26 41
43 1 30 23 26 27
44 3 30 23 26 41
45 3 26 23 30 44
46 1 26 23 30 29
47 6 22 23 30 44
48 7 27 26 23 22
49 1 23 26 27 28
50 3 23 26 27 42
51 5 41 26 27 42
52 3 28 27 26 41
53 1 26 27 28 29
54 3 26 27 28 43
55 5 42 27 28 43
56 3 14 13 12 38
57 1 12 13 14 15
58 7 12 13 14 22
59 3 15 14 13 39
60 6 22 14 13 39
61 1 13 14 15 16
62 2 13 14 15 19
63 8 22 14 15 19
64 9 13 14 22 23
65 10 13 14 22 24
66 10 13 14 22 25
67 9 15 14 22 23
68 10 15 14 22 24
69 10 15 14 22 25
70 7 16 15 14 22
71 1 14 15 16 11
72 3 14 15 16 40
73 4 19 15 16 40
74 11 16 15 19 20
75 11 14 15 19 20
76 12 15 19 20 21
77 3 29 28 27 42
78 1 27 28 29 30
79 2 27 28 29 31
80 3 30 29 28 43
81 4 31 29 28 43
82 1 28 29 30 23
83 3 28 29 30 44
84 4 31 29 30 44
85 11 28 29 31 32
86 11 30 29 31 32
87 7 29 30 23 22
88 2 23 30 29 31
89 12 29 31 32 33
90 3 5 4 3 36
91 1 3 4 5 6
92 7 3 4 5 7
93 1 2 1 6 5
94 2 2 1 6 8
95 1 6 1 2 3
96 3 6 1 2 35
97 5 34 1 2 35
98 3 3 2 1 34
99 1 1 2 3 4
100 3 1 2 3 36
101 5 35 2 3 36
102 3 4 3 2 35
103 5 36 3 4 37
104 1 2 3 4 5
105 3 2 3 4 37

Impropers

1 4 5 7 11 17
2 4 5 7 11 18
3 5 5 7 17 18
4 5 11 7 17 18
5 2 16 11 12 7
6 1 11 12 13 38
7 1 15 16 11 40
8 2 6 5 4 7
9 3 5 6 1 8
10 5 23 22 24 25
11 4 23 22 14 24
12 4 23 22 14 25
13 5 14 22 25 24
14 2 26 23 30 22
15 1 23 26 27 41
16 1 26 27 28 42
17 1 12 13 14 39
18 2 13 14 15 22
19 3 16 15 14 19
20 1 27 28 29 43
21 3 28 29 30 31
22 1 23 30 29 44
23 1 5 4 3 37
24 1 6 1 2 34
25 1 1 2 3 35
26 1 4 3 2 36
