LAMMPS data file. msi2lmp v3.9.8 / 06 Oct 2016 / CGCMM for tmp

     44 atoms
     46 bonds
     72 angles
    105 dihedrals
     26 impropers

   8 atom types
   9 bond types
   13 angle types
  14 dihedral types
   6 improper types

    -15 15 xlo xhi
    -15 15 ylo yhi
    -15 15 zlo zhi

Masses

   1  12.011150 # cp
   2  12.011150 # c
   3  15.999400 # o
   4  12.011150 # ct
   5  14.006700 # nt
   6   1.007970 # hc
   7  12.011150 # ct, polymerization
   8  14.006700 # nt, polymerization
   
Pair Coeffs # lj/class2/coul/long

   1   0.0640000000   4.0100000000 # cp
   2   0.0540000000   4.0100000000 # c
   3   0.2400000000   3.5350000000 # o
   4   0.0640000000   4.0100000000 # ct
   5   0.0650000000   3.5700000000 # nt
   6   0.0200000000   2.9950000000 # hc
   7   0.0640000000   4.0100000000 # ct, triazine
   8   0.0650000000   3.5700000000 # nt, triazine
   
Bond Coeffs # class2

   1     1.4170   470.8361  -627.6179  1327.6345 # cp-cp
   2     1.0982   372.8251  -803.4526   894.3173 # cp-hc
   3     1.5010   321.9021  -521.8208   572.1628 # cp-c
   4     1.3768   428.8798  -738.2351  1114.9655 # cp-o
   5     1.1010   345.0000  -691.8900   844.6000 # c-hc
   6     1.3130   367.8164     0.0000     0.0000 # o-ct
   7     1.1580   880.0000     0.0000     0.0000 # ct-nt
   8     1.3700   384.0000     0.0000     0.0000 # oc-cp, o bonded to triazine c
   9     1.3500   440.0000     0.0000     0.0000 # cp-np, triazine c-n

Angle Coeffs # class2

   1   118.9000    61.0226   -34.9931     0.0000 # cp-cp-cp
   2   117.9400    35.1558   -12.4682     0.0000 # cp-cp-hc
   3   120.0500    44.7148   -22.7352     0.0000 # cp-cp-c
   4   123.4200    73.6781   -21.6787     0.0000 # cp-cp-o
   5   111.0000    44.3234    -9.4454     0.0000 # cp-c-cp
   6   111.0000    44.3234    -9.4454     0.0000 # cp-c-hc
   7   107.6600    39.6410   -12.9210    -2.4318 # hc-c-hc
   8   104.5000    35.7454   -10.0067    -6.2729 # cp-o-ct, quartic angle, before polymerization
   9   180.0000   200.0000     0.0000     0.0000 # o-ct-nt, quadratic angle, before polymerization
   10  120.0000    75.0000     0.0000     0.0000 # cp-np-cp, after polymerization, quadratic angle, could also use the quartic angle Dec 1, 2018
   11  109.5000    60.0000     0.0000     0.0000 # cp-oc-cp, after polymerization, quadratic angle
   12  120.0000   102.0000     0.0000     0.0000 # oc-cp-np, after polymerization, quadratic angle
   13  120.0000   102.0000     0.0000     0.0000 # np-cp-np, after polymerization, quadratic angle

Dihedral Coeffs # class2

   1     8.3667     0.0000     1.1932     0.0000     0.0000     0.0000# cp-cp-cp-cp
   2     0.0000     0.0000     4.8498     0.0000     0.0000     0.0000# cp-cp-cp-o
   3     0.0000     0.0000     3.9661     0.0000     0.0000     0.0000# cp-cp-cp-hc
   4     0.0000     0.0000     1.7234     0.0000     0.0000     0.0000# o-cp-cp-hc
   5     0.0000     0.0000     1.8769     0.0000     0.0000     0.0000# hc-cp-cp-hc
   6     0.0000     0.0000     1.5590     0.0000     0.0000     0.0000# c-cp-cp-hc
   7     0.0000     0.0000     4.4072     0.0000     0.0000     0.0000# cp-cp-cp-c
   8     0.0000     0.0000     3.0000     0.0000     0.0000     0.0000# c-cp-cp-o
   9    -0.2802     0.0000    -0.0678     0.0000    -0.0122     0.0000# cp-cp-c-cp
  10    -0.2801     0.0000    -0.0678     0.0000    -0.0122     0.0000# cp-cp-c-hc
  11     0.0000     0.0000     1.8000     0.0000     0.0000     0.0000# cp-cp-o-ct, same for cp-cp-oc-cp and cp-oc-cp-np
  12     0.0000     0.0000     0.0000     0.0000     0.0000     0.0000# cp-o-ct-nt
  13     0.0000     0.0000     2.0000     0.0000     0.0000     0.0000# oc-c=2-n-c=2, oc-cp-np-cp, Dec 1, 2018
  14     0.0000     0.0000     2.0000     0.0000     0.0000     0.0000# c=2-n-c=2-n, cp-np-cp-np, Dec 1, 2018

Improper Coeffs # class2

  1     4.8912     0.0000 # cp-cp-cp-hc
  2     7.8153     0.0000 # cp-cp-cp-c
  3    13.0421     0.0000 # cp-cp-cp-o
  4     0.0000     0.0000 
  5     0.0000     0.0000 
  6	   10.0000	   0.0000 # np-np-cp-oc, Dec 1, 2018

BondBond Coeffs

  1    68.2856     1.4170     1.4170 
  2     1.0795     1.4170     1.0982 
  3    12.0676     1.4170     1.5010 
  4    48.4754     1.4170     1.3768 
  5     0.0000     1.5010     1.5010 
  6     2.9168     1.5010     1.1010 
  7     5.3316     1.1010     1.1010 
  8     0.0000     1.3768     0.0000 
  9     0.0000     0.0000     1.1580 
  10     0.0000     0.0000     1.1580 #reused from 9
  11     0.0000     0.0000     1.1580 #reused from 9
  12     0.0000     0.0000     1.1580 #reused from 9
  13     0.0000     0.0000     1.1580 #reused from 9

BondAngle Coeffs

  1    28.8708    28.8708     1.4170     1.4170 
  2    20.0033    24.2183     1.4170     1.0982 
  3    31.0771    47.0579     1.4170     1.5010 
  4    58.4790   107.6806     1.4170     1.3768 
  5     0.0000     0.0000     1.5010     1.5010 
  6    26.4608    11.7717     1.5010     1.1010 
  7    18.1030    18.1030     1.1010     1.1010 
  8     0.0000     0.0000     1.3768     0.0000 
  9     0.0000     0.0000     0.0000     1.1580
  10     0.0000     0.0000     0.0000     1.1580 #reused from 9
  11     0.0000     0.0000     0.0000     1.1580 #reused from 9
  12     0.0000     0.0000     0.0000     1.1580 #reused from 9
  13     0.0000     0.0000     0.0000     1.1580 #reused from 9 

AngleAngle Coeffs

  1     0.0000     0.0000     0.0000   118.9000   117.9400   117.9400 
  2     0.0000     0.0000     0.0000   118.9000   120.0500   120.0500 
  3     0.0000     0.0000     0.0000   118.9000   123.4200   123.4200 
  4     0.0000     0.0000     0.0000   111.0000   111.0000   111.0000 
  5     2.3794     3.0118     2.3794   111.0000   107.6600   111.0000 
  6     2.3794     3.0118     2.3794   111.0000   107.6600   111.0000 #reused from 5

AngleAngleTorsion Coeffs

  1     0.0000   118.9000   118.9000 
  2   -21.0247   118.9000   123.4200 
  3    -4.8141   118.9000   117.9400 
  4     4.2296   123.4200   117.9400 
  5     0.3598   117.9400   117.9400 
  6     4.4444   120.0500   117.9400 
  7   -14.4097   118.9000   120.0500 
  8     0.0000   120.0500   123.4200 
  9     0.0000   120.0500   111.0000 
 10    -5.8888   120.0500   111.0000 
 11     0.0000   123.4200     0.0000 
 12     0.0000     0.0000     0.0000 
 13     0.0000     0.0000     0.0000 #reused from 12
 14     0.0000     0.0000     0.0000 #reused from 12

EndBondTorsion Coeffs

1    -0.1185     6.3204     0.0000    -0.1185     6.3204     0.0000     1.4170     1.4170 
2     0.0000     0.2655     0.0000     0.0000     4.8905     0.0000     1.4170     1.3768 
3     0.0000    -6.8958     0.0000     0.0000    -0.4669     0.0000     1.4170     1.0982 
4     0.0000     4.2641     0.0000     0.0000    -1.5867     0.0000     1.3768     1.0982 
5     0.0000    -0.6890     0.0000     0.0000    -0.6890     0.0000     1.0982     1.0982 
6     0.0000    -1.7970     0.0000     0.0000    -0.4879     0.0000     1.5010     1.0982 
7     0.0000    -0.6918     0.0000     0.0000     0.2421     0.0000     1.4170     1.5010 
8     0.0000     0.0000     0.0000     0.0000     0.0000     0.0000     1.5010     1.3768 
9     0.0000     0.0000     0.0000     0.0000     0.0000     0.0000     1.4170     1.5010 
10    -0.5835     1.1220     0.3978     1.3997     0.7756     0.0000     1.4170     1.1010 
11     0.0000     0.0000     0.0000     0.0000     0.0000     0.0000     1.4170     0.0000 
12     0.0000     0.0000     0.0000     0.0000     0.0000     0.0000     1.3768     1.1580 
13     0.0000     0.0000     0.0000     0.0000     0.0000     0.0000     1.3768     1.1580 #reused from 12
14     0.0000     0.0000     0.0000     0.0000     0.0000     0.0000     1.3768     1.1580 #reused from 12

MiddleBondTorsion Coeffs

  1    27.5989    -2.3120     0.0000     1.4170 
  2     0.0000     4.8255     0.0000     1.4170 
  3     0.0000    -1.1521     0.0000     1.4170 
  4     0.0000     5.5432     0.0000     1.4170 
  5     0.0000     4.8228     0.0000     1.4170 
  6     0.0000     3.9421     0.0000     1.4170 
  7     0.0000     9.1792     0.0000     1.4170 
  8     0.0000     0.0000     0.0000     1.4170 
  9     0.0000     0.0000     0.0000     1.5010 
 10    -5.5679     1.4083     0.3010     1.5010 
 11     0.0000     0.0000     0.0000     1.3768 
 12     0.0000     0.0000     0.0000     0.0000 
 13     0.0000     0.0000     0.0000     0.0000 #reused from 12
 14     0.0000     0.0000     0.0000     0.0000 #reused from 12

BondBond13 Coeffs

  1    53.0000     1.4170     1.4170 
  2    -2.2436     1.4170     1.3768 
  3    -6.2741     1.4170     1.0982 
  4     2.0517     1.3768     1.0982 
  5    -1.7077     1.0982     1.0982 
  6     0.8743     1.5010     1.0982 
  7     2.5085     1.4170     1.5010 
  8     0.0000     1.5010     1.3768 
  9     0.0000     1.4170     1.5010 
 10    -3.4826     1.4170     1.1010 
 11     0.0000     1.4170     0.0000 
 12     0.0000     1.3768     1.1580 
 13     0.0000     1.3768     1.1580 #reused from 12
 14     0.0000     1.3768     1.1580 #reused from 12

AngleTorsion Coeffs

  1     1.9767     1.0239     0.0000     1.9767     1.0239     0.0000   118.9000   118.9000 
  2     0.0000    10.0155     0.0000     0.0000     1.7404     0.0000   118.9000   123.4200 
  3     0.0000     2.5014     0.0000     0.0000     2.7147     0.0000   118.9000   117.9400 
  4     0.0000     2.5706     0.0000     0.0000     1.8729     0.0000   123.4200   117.9400 
  5     0.0000     2.4501     0.0000     0.0000     2.4501     0.0000   117.9400   117.9400 
  6     0.0000    -0.1242     0.0000     0.0000     3.4601     0.0000   120.0500   117.9400 
  7     0.0000     3.8987     0.0000     0.0000    -4.4683     0.0000   118.9000   120.0500 
  8     0.0000     0.0000     0.0000     0.0000     0.0000     0.0000   120.0500   123.4200 
  9     0.0000     0.0000     0.0000     0.0000     0.0000     0.0000   120.0500   111.0000 
 10     0.2251     0.6548     0.1237     4.6266     0.1632     0.0461   120.0500   111.0000 
 11     0.0000     0.0000     0.0000     0.0000     0.0000     0.0000   123.4200     0.0000 
 12     0.0000     0.0000     0.0000     0.0000     0.0000     0.0000     0.0000     0.0000 
 13     0.0000     0.0000     0.0000     0.0000     0.0000     0.0000     0.0000     0.0000 #reused from 12
 14     0.0000     0.0000     0.0000     0.0000     0.0000     0.0000     0.0000     0.0000 #reused from 12

Atoms # full

      1      1   1 -0.126800     2.294487156     5.008108513     4.153557147   0   0   0 # cp
      2      1   1 -0.126800     2.886216505     4.581607972     5.329799921   0   0   0 # cp
      3      1   1 -0.126800     2.613124944     3.386649828     5.861419042   0   0   0 # cp
      4      1   1 -0.126800     1.524490386     2.716568202     5.369894589   0   0   0 # cp
      5      1   1  0.000000     0.782547757     3.241401898     4.262729094   0   0   0 # cp
      6      1   1  0.026500     1.066490332     4.482849070     3.740903861   0   0   0 # cp
      7      1   2 -0.106000    -0.306912976     2.480909829     3.473034712   0   0   0 # c
      8      1   3 -0.094000     0.304544012     4.893548104     2.638536572   0   0   0 # o
      9      1   4  0.187900     0.531735596     6.258751729     2.324811315   0   0   0 # ct
     10      1   5 -0.120400     0.627622910     7.401688733     2.152916786   0   0   0 # nt
     11      1   1  0.000000    -0.622994567     1.006087760     3.828714914   0   0   0 # cp
     12      1   1 -0.126800    -1.969097567     0.600905899     4.030804141   0   0   0 # cp
     13      1   1 -0.126800    -2.205008874    -0.786991911     4.124834111   0   0   0 # cp
     14      1   1  0.000000    -1.188837508    -1.753256734     4.123854461   0   0   0 # cp
     15      1   1  0.026500     0.163187783    -1.330867999     3.998359811   0   0   0 # cp
     16      1   1 -0.126800     0.413641490     0.039416744     3.814580752   0   0   0 # cp
     17      1   6  0.053000    -1.262929773     3.046039749     3.504715930   0   0   0 # hc
     18      1   6  0.053000    -0.073741270     2.537319516     2.387688087   0   0   0 # hc
     19      1   3 -0.094000     1.005501776    -2.325855018     3.646137438   0   0   0 # o
     20      1   4  0.187900     2.348414610    -2.079269254     3.481460757   0   0   0 # ct
     21      1   5 -0.120400     3.430256478    -1.742588497     3.533258425   0   0   0 # nt
     22      1   2 -0.106000    -1.628700116    -3.205464264     4.307236042   0   0   0 # c
     23      1   1  0.000000    -0.853379281    -4.285609316     5.086227497   0   0   0 # cp
     24      1   6  0.053000    -2.534034598    -3.121255784     4.936721612   0   0   0 # hc
     25      1   6  0.053000    -1.870942778    -3.630617704     3.325855454   0   0   0 # hc
     26      1   1 -0.126800     0.188765114    -3.924727911     5.898978865   0   0   0 # cp
     27      1   1 -0.126800     0.990379577    -4.861275286     6.556532950   0   0   0 # cp
     28      1   1 -0.126800     0.601777848     7.720905850     6.469235557   0   0   0 # cp
     29      1   1  0.026500    -0.496615431     7.288578600     5.689740099   0   0   0 # cp
     30      1   1 -0.126800    -1.069646551     8.293546184     4.823976835   0   0   0 # cp
     31      1   3 -0.094000    -1.011231799     6.013193420     5.812756784   0   0   0 # o
     32      1   4  0.187900    -2.155251455     5.702356076     5.096460884   0   0   0 # ct
     33      1   5 -0.120400    -3.082496221     5.308766367     4.510104486   0   0   0 # nt
     34      1   6  0.126800     2.778809871     5.889214783     3.678234264   0   0   0 # hc
     35      1   6  0.126800     3.757931278     5.061730640     5.727436550   0   0   0 # hc
     36      1   6  0.126800     3.247290343     2.915556737     6.579977011   0   0   0 # hc
     37      1   6  0.126800     1.430934792     1.740818169     5.812430885   0   0   0 # hc
     38      1   6  0.126800    -2.826580134     1.246045502     4.004723853   0   0   0 # hc
     39      1   6  0.126800    -3.224561736    -1.151237938     4.220001665   0   0   0 # hc
     40      1   6  0.126800     1.423425919     0.318353065     3.620830275   0   0   0 # hc
     41      1   6  0.126800     0.429813686    -2.880313543     6.009927579   0   0   0 # hc
     42      1   6  0.126800     1.777807848    -4.606579394     7.258705641   0   0   0 # hc
     43      1   6  0.126800     0.949604575     7.006682361     7.125873581   0   0   0 # hc
     44      1   6  0.126800    -1.816763985     8.031335981     4.071253070   0   0   0 # hc

Bonds

     1   1      1      6
     2   1      1      2
     3   2      1     34
     4   1      2      3
     5   2      2     35
     6   1      3      4
     7   2      3     36
     8   1      4      5
     9   2      4     37
    10   1      5      6
    11   3      5      7
    12   4      6      8
    13   3     11      7
    14   5      7     17
    15   5      7     18
    16   6      8      9
    17   7      9     10
    18   1     11     16
    19   1     11     12
    20   1     12     13
    21   2     12     38
    22   1     13     14
    23   2     13     39
    24   1     14     15
    25   3     14     22
    26   1     15     16
    27   4     15     19
    28   2     16     40
    29   6     19     20
    30   7     20     21
    31   3     23     22
    32   5     22     24
    33   5     22     25
    34   1     23     26
    35   1     23     30
    36   1     26     27
    37   2     26     41
    38   1     27     28
    39   2     27     42
    40   1     28     29
    41   2     28     43
    42   1     29     30
    43   4     29     31
    44   2     30     44
    45   6     31     32
    46   7     32     33

Angles

     1   1      6      1      2
     2   2      6      1     34
     3   2      2      1     34
     4   1      1      2      3
     5   2      1      2     35
     6   2      3      2     35
     7   2      4      3     36
     8   1      4      3      2
     9   2      2      3     36
    10   2      5      4     37
    11   1      5      4      3
    12   2      3      4     37
    13   3      6      5      7
    14   1      6      5      4
    15   3      4      5      7
    16   4      5      6      8
    17   1      5      6      1
    18   4      1      6      8
    19   5      5      7     11
    20   6      5      7     17
    21   6      5      7     18
    22   6     11      7     17
    23   6     11      7     18
    24   7     17      7     18
    25   8      6      8      9
    26   9      8      9     10
    27   1     16     11     12
    28   3     16     11      7
    29   3     12     11      7
    30   1     11     12     13
    31   2     11     12     38
    32   2     13     12     38
    33   1     12     13     14
    34   2     12     13     39
    35   2     14     13     39
    36   1     13     14     15
    37   3     13     14     22
    38   3     15     14     22
    39   1     16     15     14
    40   4     16     15     19
    41   4     14     15     19
    42   1     15     16     11
    43   2     15     16     40
    44   2     11     16     40
    45   8     15     19     20
    46   9     19     20     21
    47   6     23     22     24
    48   6     23     22     25
    49   5     23     22     14
    50   7     24     22     25
    51   6     14     22     24
    52   6     14     22     25
    53   3     26     23     22
    54   1     26     23     30
    55   3     30     23     22
    56   1     23     26     27
    57   2     23     26     41
    58   2     27     26     41
    59   1     26     27     28
    60   2     26     27     42
    61   2     28     27     42
    62   1     27     28     29
    63   2     27     28     43
    64   2     29     28     43
    65   1     28     29     30
    66   4     28     29     31
    67   4     30     29     31
    68   2     23     30     44
    69   1     23     30     29
    70   2     29     30     44
    71   8     29     31     32
    72   9     31     32     33

Dihedrals

     1   1      2      1      6      5
     2   2      2      1      6      8
     3   3      5      6      1     34
     4   4      8      6      1     34
     5   1      6      1      2      3
     6   3      6      1      2     35
     7   3      3      2      1     34
     8   5     34      1      2     35
     9   1      1      2      3      4
    10   3      1      2      3     36
    11   3      4      3      2     35
    12   5     35      2      3     36
    13   3      5      4      3     36
    14   5     36      3      4     37
    15   1      2      3      4      5
    16   3      2      3      4     37
    17   3      6      5      4     37
    18   6      7      5      4     37
    19   1      3      4      5      6
    20   7      3      4      5      7
    21   8      7      5      6      8
    22   7      1      6      5      7
    23   2      4      5      6      8
    24   1      4      5      6      1
    25   9      6      5      7     11
    26  10      6      5      7     17
    27  10      6      5      7     18
    28   9      4      5      7     11
    29  10      4      5      7     17
    30  10      4      5      7     18
    31  11      5      6      8      9
    32  11      1      6      8      9
    33   9     16     11      7      5
    34   9     12     11      7      5
    35  10     16     11      7     17
    36  10     12     11      7     17
    37  10     16     11      7     18
    38  10     12     11      7     18
    39  12      6      8      9     10
    40   1     12     11     16     15
    41   3     12     11     16     40
    42   7     15     16     11      7
    43   6      7     11     16     40
    44   1     16     11     12     13
    45   3     16     11     12     38
    46   7     13     12     11      7
    47   6      7     11     12     38
    48   1     11     12     13     14
    49   3     11     12     13     39
    50   3     14     13     12     38
    51   5     38     12     13     39
    52   1     12     13     14     15
    53   7     12     13     14     22
    54   3     15     14     13     39
    55   6     22     14     13     39
    56   1     13     14     15     16
    57   2     13     14     15     19
    58   7     16     15     14     22
    59   8     22     14     15     19
    60   9     13     14     22     23
    61  10     13     14     22     24
    62  10     13     14     22     25
    63   9     15     14     22     23
    64  10     15     14     22     24
    65  10     15     14     22     25
    66   1     14     15     16     11
    67   3     14     15     16     40
    68   2     11     16     15     19
    69   4     19     15     16     40
    70  11     16     15     19     20
    71  11     14     15     19     20
    72  12     15     19     20     21
    73  10     26     23     22     24
    74  10     30     23     22     24
    75  10     26     23     22     25
    76  10     30     23     22     25
    77   9     26     23     22     14
    78   9     30     23     22     14
    79   7     27     26     23     22
    80   6     22     23     26     41
    81   1     30     23     26     27
    82   3     30     23     26     41
    83   3     26     23     30     44
    84   1     26     23     30     29
    85   6     22     23     30     44
    86   7     29     30     23     22
    87   1     23     26     27     28
    88   3     23     26     27     42
    89   3     28     27     26     41
    90   5     41     26     27     42
    91   1     26     27     28     29
    92   3     26     27     28     43
    93   3     29     28     27     42
    94   5     42     27     28     43
    95   1     27     28     29     30
    96   2     27     28     29     31
    97   3     30     29     28     43
    98   4     31     29     28     43
    99   1     28     29     30     23
   100   3     28     29     30     44
   101   2     23     30     29     31
   102   4     31     29     30     44
   103  11     28     29     31     32
   104  11     30     29     31     32
   105  12     29     31     32     33

Impropers

     1   1      6      1      2     34 
     2   1      1      2      3     35 
     3   1      4      3      2     36 
     4   1      5      4      3     37 
     5   2      6      5      4      7 
     6   3      5      6      1      8 
     7   2     16     11     12      7 
     8   1     11     12     13     38 
     9   1     12     13     14     39 
    10   2     13     14     15     22 
    11   3     16     15     14     19 
    12   1     15     16     11     40 
    13   2     26     23     30     22 
    14   1     23     26     27     41 
    15   1     26     27     28     42 
    16   1     27     28     29     43 
    17   3     28     29     30     31 
    18   1     23     30     29     44 
    19   4      5      7     11     17 
    20   4      5      7     11     18 
    21   5      5      7     17     18 
    22   5     11      7     17     18 
    23   5     23     22     24     25 
    24   4     23     22     14     24 
    25   4     23     22     14     25 
    26   5     14     22     25     24 

