LAMMPS data file. msi2lmp v3.9.8 / 06 Oct 2016 / CGCMM for tmp

     34 atoms
     36 bonds
     56 angles
     80 dihedrals
     18 impropers

   7 atom types
   5 bond types
   7 angle types
  10 dihedral types
   4 improper types

    -5.850926566     5.389475444 xlo xhi
    -6.156783090     6.155950379 ylo yhi
    -3.389066049     3.048230057 zlo zhi

Masses

   1  15.999400 # oc
   2  12.011150 # cp
   3   1.007970 # hc
   4  12.011150 # c_0
   5  15.999400 # o=
   6  15.999400 # oc, polymerized O
   7  12.011150 # cp, polymerized C

Pair Coeffs # lj/class2/coul/long

   1   0.2400000000   3.5350000000 # oc
   2   0.0640000000   4.0100000000 # cp
   3   0.0200000000   2.9950000000 # hc
   4   0.1200000000   3.3080000000 # c_0
   5   0.2800000000   3.2500000000 # o=
   6   0.2400000000   3.5350000000 # oc, polymerized O
   7   0.0640000000   4.0100000000 # cp, polymerized C

Bond Coeffs # class2

   1     1.3768   428.8798  -738.2351  1114.9655 # oc-cp
   2     1.4170   470.8361  -627.6179  1327.6345 # cp-cp
   3     1.0982   372.8251  -803.4526   894.3173 # cp-hc
   4     1.4890   339.3574  -655.7236   670.2362 # cp-c_0
   5     1.2500   572.8860     0.0000     0.0000 # c_0-o=

Angle Coeffs # class2

   1   123.4200    73.6781   -21.6787     0.0000 # oc-cp-cp
   2   118.9000    61.0226   -34.9931     0.0000 # cp-cp-cp
   3   117.9400    35.1558   -12.4682     0.0000 # cp-cp-hc
   4   109.5000    60.0000     0.0000     0.0000 # cp-oc-cp
   5   108.4000    43.9594    -8.3924    -9.3379 # cp-cp-c_0
   6   120.0000    68.0000     0.0000     0.0000 # cp-c_0-o=
   7   110.5884    34.6214    -7.0939    -7.4032 # cp-c_0-cp

Dihedral Coeffs # class2

   1     0.0000     0.0000     1.7234     0.0000     0.0000     0.0000# oc-cp-cp-hc
   2     0.0000     0.0000     4.8498     0.0000     0.0000     0.0000# oc-cp-cp-cp
   3     0.0000     0.0000     3.9661     0.0000     0.0000     0.0000# cp-cp-cp-hc
   4     8.3667     0.0000     1.1932     0.0000     0.0000     0.0000# cp-cp-cp-cp
   5     0.0000     0.0000     1.8769     0.0000     0.0000     0.0000# hc-cp-cp-hc
   6     0.0000     0.0000     1.8000     0.0000     0.0000     0.0000# cp-oc-cp-cp, substituted
   7     0.0000     0.0000     4.6282     0.0000     0.0000     0.0000# cp-cp-cp-c_0
   8     0.0000     0.0000     2.1670     0.0000     0.0000     0.0000# hc-cp-cp-c_0
   9     0.0000     0.0000     2.5000     0.0000     0.0000     0.0000# cp-cp-c_0-o=, substituted
  10     0.0000     0.0000     2.5000     0.0000     0.0000     0.0000# cp-cp-c_0-cp, substituted

Improper Coeffs # class2

  1    13.0421     0.0000 # oc-cp-cp-cp
  2     4.8912     0.0000 # cp-cp-cp-hc
  3     0.0000     0.0000 # cp-cp-cp-c_0
  4     0.0000     0.0000 # cp-c_0-cp-o=

BondBond Coeffs

  1    48.4754     1.3768     1.4170 
  2    68.2856     1.4170     1.4170 
  3     1.0795     1.4170     1.0982 
  4     0.0000     1.3768     1.3768 
  5     0.0000     1.4170     1.4890 
  6     0.0000     1.4890     0.0000 
  7     0.0000     1.4890     1.4890 

BondAngle Coeffs

  1   107.6806    58.4790     1.3768     1.4170 
  2    28.8708    28.8708     1.4170     1.4170 
  3    20.0033    24.2183     1.4170     1.0982 
  4     0.0000     0.0000     1.3768     1.3768 
  5     0.0000     0.0000     1.4170     1.4890 
  6     0.0000     0.0000     1.4890     0.0000 
  7     0.0000     0.0000     1.4890     1.4890 

AngleAngle Coeffs

  1     0.0000     0.0000     0.0000   123.4200   118.9000   123.4200 
  2     0.0000     0.0000     0.0000   118.9000   117.9400   117.9400 
  3     0.0000     0.0000     0.0000   118.9000   108.4000   108.4000 
  4     0.0000     0.0000     0.0000   110.5884     0.0000     0.0000 

AngleAngleTorsion Coeffs

  1     4.2296   123.4200   117.9400 
  2   -21.0247   123.4200   118.9000 
  3    -4.8141   118.9000   117.9400 
  4     0.0000   118.9000   118.9000 
  5     0.3598   117.9400   117.9400 
  6     0.0000     0.0000   123.4200 
  7     0.0000   118.9000   108.4000 
  8     0.0000   117.9400   108.4000 
  9     0.0000   108.4000     0.0000 
 10     0.0000   108.4000   110.5884 

EndBondTorsion Coeffs

1     0.0000     4.2641     0.0000     0.0000    -1.5867     0.0000     1.3768     1.0982 
2     0.0000     4.8905     0.0000     0.0000     0.2655     0.0000     1.3768     1.4170 
3     0.0000    -6.8958     0.0000     0.0000    -0.4669     0.0000     1.4170     1.0982 
4    -0.1185     6.3204     0.0000    -0.1185     6.3204     0.0000     1.4170     1.4170 
5     0.0000    -0.6890     0.0000     0.0000    -0.6890     0.0000     1.0982     1.0982 
6     0.0000     0.0000     0.0000     0.0000     0.0000     0.0000     1.3768     1.4170 
7     0.0000     0.0000     0.0000     0.0000     0.0000     0.0000     1.4170     1.4890 
8     0.0000     0.0000     0.0000     0.0000     0.0000     0.0000     1.0982     1.4890 
9     0.0000     0.0000     0.0000     0.0000     0.0000     0.0000     1.4170     0.0000 
10     0.0000     0.0000     0.0000     0.0000     0.0000     0.0000     1.4170     1.4890 

MiddleBondTorsion Coeffs

  1     0.0000     5.5432     0.0000     1.4170 
  2     0.0000     4.8255     0.0000     1.4170 
  3     0.0000    -1.1521     0.0000     1.4170 
  4    27.5989    -2.3120     0.0000     1.4170 
  5     0.0000     4.8228     0.0000     1.4170 
  6     0.0000     0.0000     0.0000     1.3768 
  7     0.0000     0.0000     0.0000     1.4170 
  8     0.0000     0.0000     0.0000     1.4170 
  9     0.0000     0.0000     0.0000     1.4890 
 10     0.0000     0.0000     0.0000     1.4890 

BondBond13 Coeffs

  1     2.0517     1.3768     1.0982 
  2    -2.2436     1.3768     1.4170 
  3    -6.2741     1.4170     1.0982 
  4    53.0000     1.4170     1.4170 
  5    -1.7077     1.0982     1.0982 
  6     0.0000     1.3768     1.4170 
  7     0.0000     1.4170     1.4890 
  8     0.0000     1.0982     1.4890 
  9     0.0000     1.4170     0.0000 
 10     0.0000     1.4170     1.4890 

AngleTorsion Coeffs

  1     0.0000     2.5706     0.0000     0.0000     1.8729     0.0000   123.4200   117.9400 
  2     0.0000     1.7404     0.0000     0.0000    10.0155     0.0000   123.4200   118.9000 
  3     0.0000     2.5014     0.0000     0.0000     2.7147     0.0000   118.9000   117.9400 
  4     1.9767     1.0239     0.0000     1.9767     1.0239     0.0000   118.9000   118.9000 
  5     0.0000     2.4501     0.0000     0.0000     2.4501     0.0000   117.9400   117.9400 
  6     0.0000     0.0000     0.0000     0.0000     0.0000     0.0000     0.0000   123.4200 
  7     0.0000     0.0000     0.0000     0.0000     0.0000     0.0000   118.9000   108.4000 
  8     0.0000     0.0000     0.0000     0.0000     0.0000     0.0000   117.9400   108.4000 
  9     0.0000     0.0000     0.0000     0.0000     0.0000     0.0000   108.4000     0.0000 
 10     0.0000     0.0000     0.0000     0.0000     0.0000     0.0000   108.4000   110.5884 

Atoms # full

      1      1   6 -0.026500    -5.350926566    -4.485224104     1.973668594   0   0   0 # oc
      2      1   2  0.026500    -4.097956521    -3.962456949     1.988846713   0   0   0 # cp
      3      1   2 -0.126800    -2.932428334    -4.709894694     1.608041510   0   0   0 # cp
      4      1   3  0.126800    -3.050808612    -5.656783090     1.215028071   0   0   0 # hc
      5      1   2 -0.126800    -1.639709805    -4.182693696     1.576775286   0   0   0 # cp
      6      1   3  0.126800    -0.884588973    -4.808221633     1.183109281   0   0   0 # hc
      7      1   2  0.026500    -1.468340651    -2.821262035     1.853888557   0   0   0 # cp
      8      1   2 -0.126800    -2.651346503    -2.100907553     2.280591175   0   0   0 # cp
      9      1   3  0.126800    -2.567143207    -1.068213071     2.548230057   0   0   0 # hc
     10      1   1 -0.053000    -0.232117301    -2.262376751     1.762749412   0   0   0 # oc
     11      1   2  0.026500    -0.068267941    -1.182074544     0.960937965   0   0   0 # cp
     12      1   2 -0.126800    -1.057293351    -0.474955255     0.243823447   0   0   0 # cp
     13      1   3  0.126800    -2.102152274    -0.806961711     0.146594820   0   0   0 # hc
     14      1   2 -0.126800    -0.841185943     0.660173678    -0.539023029   0   0   0 # cp
     15      1   3  0.126800    -1.671251492     1.147696153    -1.068070920   0   0   0 # hc
     16      1   2  0.000000     0.398173738     1.305693855    -0.525407269   0   0   0 # cp
     17      1   2 -0.126800     1.383450391     0.733021100     0.244688380   0   0   0 # cp
     18      1   3  0.126800     2.355895373     1.313713985     0.269181001   0   0   0 # hc
     19      1   4  0.000000     0.622065706     2.604489183    -1.066201810   0   0   0 # c_0
     20      1   2  0.000000     1.991315795     2.967113942    -1.656881309   0   0   0 # cp
     21      1   2 -0.126800     2.187971012     4.288656475    -2.030891361   0   0   0 # cp
     22      1   3  0.126800     1.484965515     5.045252530    -1.874532367   0   0   0 # hc
     23      1   2 -0.126800     3.390866844     4.659060154    -2.625168244   0   0   0 # cp
     24      1   3  0.126800     3.679572739     5.655950379    -2.836564621   0   0   0 # hc
     25      1   7  0.000000     4.405939829     3.768550007    -2.889066049   0   0   0 # cp
     26      1   2 -0.126800     4.112385912     2.421156936    -2.700925488   0   0   0 # cp
     27      1   3  0.126800     4.889475444     1.694332661    -2.885409772   0   0   0 # hc
     28      1   2 -0.126800     2.935061551     2.039039985    -2.119466145   0   0   0 # cp
     29      1   3  0.126800     2.852698781     0.990471131    -1.845523687   0   0   0 # hc
     30      1   5  0.000000    -0.284825630     3.411622644    -1.253226683   0   0   0 # o=
     31      1   2 -0.126800     1.156215826    -0.474914088     0.948337841   0   0   0 # cp
     32      1   3  0.126800     1.982859784    -0.814240093     1.507159613   0   0   0 # hc
     33      1   2 -0.126800    -3.926901878    -2.581528657     2.340636928   0   0   0 # cp
     34      1   3  0.126800    -4.815836568    -1.881896572     2.538344895   0   0   0 # hc

Bonds

     1   1      1      2
     2   2      2      3
     3   2      2     33
     4   3      3      4
     5   2      3      5
     6   2      5      7
     7   3      5      6
     8   2      7      8
     9   1     10      7
    10   3      8      9
    11   2      8     33
    12   1     10     11
    13   2     11     12
    14   2     11     31
    15   3     12     13
    16   2     12     14
    17   3     14     15
    18   2     14     16
    19   2     16     17
    20   4     16     19
    21   3     17     18
    22   2     17     31
    23   5     19     30
    24   4     20     19
    25   2     20     21
    26   2     20     28
    27   3     21     22
    28   2     21     23
    29   3     23     24
    30   2     23     25
    31   2     25     26
    32   3     26     27
    33   2     26     28
    34   3     28     29
    35   3     31     32
    36   3     33     34

Angles

     1   1      1      2      3
     2   1      1      2     33
     3   2      3      2     33
     4   3      2      3      4
     5   2      2      3      5
     6   3      5      3      4
     7   2      3      5      7
     8   3      3      5      6
     9   3      7      5      6
    10   2      5      7      8
    11   1     10      7      5
    12   1     10      7      8
    13   3      7      8      9
    14   2      7      8     33
    15   3     33      8      9
    16   4      7     10     11
    17   1     10     11     12
    18   1     10     11     31
    19   2     12     11     31
    20   3     14     12     13
    21   3     11     12     13
    22   2     14     12     11
    23   3     12     14     15
    24   2     12     14     16
    25   3     16     14     15
    26   2     14     16     17
    27   5     14     16     19
    28   5     17     16     19
    29   3     16     17     18
    30   2     16     17     31
    31   3     31     17     18
    32   6     20     19     30
    33   6     16     19     30
    34   7     20     19     16
    35   2     21     20     28
    36   5     21     20     19
    37   5     28     20     19
    38   3     20     21     22
    39   2     20     21     23
    40   3     23     21     22
    41   3     21     23     24
    42   2     21     23     25
    43   3     25     23     24
    44   2     23     25     26
    45   3     25     26     27
    46   2     25     26     28
    47   3     28     26     27
    48   3     26     28     29
    49   2     26     28     20
    50   3     20     28     29
    51   2     11     31     17
    52   3     11     31     32
    53   3     17     31     32
    54   2      2     33      8
    55   3      2     33     34
    56   3      8     33     34

Dihedrals

     1   1      1      2      3      4
     2   2      1      2      3      5
     3   3     33      2      3      4
     4   4     33      2      3      5
     5   2      1      2     33      8
     6   1      1      2     33     34
     7   4      3      2     33      8
     8   3      3      2     33     34
     9   4      2      3      5      7
    10   3      2      3      5      6
    11   3      7      5      3      4
    12   5      4      3      5      6
    13   4      3      5      7      8
    14   2     10      7      5      3
    15   3      8      7      5      6
    16   1     10      7      5      6
    17   3      5      7      8      9
    18   4      5      7      8     33
    19   1     10      7      8      9
    20   2     10      7      8     33
    21   6     11     10      7      5
    22   6     11     10      7      8
    23   4      7      8     33      2
    24   3      7      8     33     34
    25   3      2     33      8      9
    26   5      9      8     33     34
    27   6      7     10     11     12
    28   6      7     10     11     31
    29   1     10     11     12     13
    30   2     10     11     12     14
    31   3     31     11     12     13
    32   4     31     11     12     14
    33   2     10     11     31     17
    34   1     10     11     31     32
    35   4     12     11     31     17
    36   3     12     11     31     32
    37   5     13     12     14     15
    38   3     16     14     12     13
    39   3     11     12     14     15
    40   4     11     12     14     16
    41   4     12     14     16     17
    42   7     12     14     16     19
    43   3     17     16     14     15
    44   8     15     14     16     19
    45   3     14     16     17     18
    46   4     14     16     17     31
    47   8     18     17     16     19
    48   7     31     17     16     19
    49   9     14     16     19     30
    50  10     14     16     19     20
    51   9     17     16     19     30
    52  10     17     16     19     20
    53   4     16     17     31     11
    54   3     16     17     31     32
    55   3     11     31     17     18
    56   5     18     17     31     32
    57   9     21     20     19     30
    58   9     28     20     19     30
    59  10     21     20     19     16
    60  10     28     20     19     16
    61   3     28     20     21     22
    62   4     28     20     21     23
    63   8     22     21     20     19
    64   7     23     21     20     19
    65   4     21     20     28     26
    66   3     21     20     28     29
    67   7     26     28     20     19
    68   8     29     28     20     19
    69   3     20     21     23     24
    70   4     20     21     23     25
    71   5     22     21     23     24
    72   3     25     23     21     22
    73   4     21     23     25     26
    74   3     26     25     23     24
    75   3     23     25     26     27
    76   4     23     25     26     28
    77   3     25     26     28     29
    78   4     25     26     28     20
    79   5     27     26     28     29
    80   3     20     28     26     27

Impropers

     1   1      1      2      3     33 
     2   2      2      3      5      4 
     3   2      3      5      7      6 
     4   1     10      7      8      5 
     5   2      7      8     33      9 
     6   1     10     11     12     31 
     7   2     14     12     11     13 
     8   2     12     14     16     15 
     9   3     14     16     17     19 
    10   2     16     17     31     18 
    11   4     20     19     16     30 
    12   3     21     20     28     19 
    13   2     20     21     23     22 
    14   2     21     23     25     24 
    15   2     25     26     28     27 
    16   2     26     28     20     29 
    17   2     11     31     17     32 
    18   2      2     33      8     34 

